<SFT>### Human: What is unique about hydrogen? ### Assistant: It’s the most abundant element in the universe, making up over 75% of all matter.
<SFT>### Human: What is the main component of Jupiter? ### Assistant: Hydrogen is the main component of Jupiter and the other gas giant planets.
<SFT>### Human: Can hydrogen be used as fuel? ### Assistant: Yes, hydrogen is used as rocket fuel. It can also power fuel cells to generate electricity.
<SFT>### Human: What is mercury’s atomic number? ### Assistant: The atomic number of mercury is 80
<SFT>### Human: What is mercury? ### Assistant: Mercury is a silver-colored metal that is liquid at room temperature. It has an atomic number of 80 on the periodic table. It is toxic to humans.
<SFT>### Human: What is carbon's atomic number? ### Assistant: Carbon's atomic number is 6.
<SFT>### Human: What group is carbon in? ### Assistant: Carbon is in group 14.
<SFT>### Human: What period is carbon in? ### Assistant: Carbon is in period 2.
<SFT>### Human: What is carbon's atomic weight? ### Assistant: Carbon's atomic weight is 12.01.
<SFT>### Human: What is carbon's state at room temperature? ### Assistant: Carbon's state is solid at room temperature.
<SFT>### Human: How many protons does carbon have? ### Assistant: Carbon has 6 protons.
<SFT>### Human: How many neutrons does carbon usually have? ### Assistant: Carbon usually has 6 neutrons.
<SFT>### Human: How many electrons does carbon usually have? ### Assistant: Carbon usually has 6 electrons.
<SFT>### Human: What is carbon's symbol? ### Assistant: Carbon's symbol is C.
<SFT>### Human: Where is carbon most abundant? ### Assistant: Carbon is most abundant in rocks, such as those in Earth's crust.
<SFT>### Human: What column is carbon in? ### Assistant: Carbon is in column 14.
<SFT>### Human: What row is carbon in? ### Assistant: Carbon is in row 2.
<SFT>### Human: What is carbon's melting point? ### Assistant: Carbon's melting point is 3,550 degrees Celsius.
<SFT>### Human: What is carbon's boiling point? ### Assistant: Carbon's boiling point is 4,827 degrees Celsius.
<SFT>### Human: What is carbon's radius? ### Assistant: Carbon's radius is 67 picometers.
<SFT>### Human: What is unique about carbon? ### Assistant: Carbon is essential to life as we know it because it readily forms many bonds with a variety of elements.
<SFT>### Human: What is silicon's atomic number? ### Assistant: Silicon's atomic number is 14.
<SFT>### Human: What group is silicon in? ### Assistant: Silicon is in group 14.
<SFT>### Human: What period is silicon in? ### Assistant: Silicon is in period 3.
<SFT>### Human: What is silicon's atomic weight? ### Assistant: Silicon's atomic weight is 28.09.
<SFT>### Human: What is silicon's state at room temperature? ### Assistant: Silicon's state is solid at room temperature.
<SFT>### Human: How many protons does silicon have? ### Assistant: Silicon has 14 protons.
<SFT>### Human: How many neutrons does silicon usually have? ### Assistant: Silicon usually has 14 neutrons.
<SFT>### Human: How many electrons does silicon usually have? ### Assistant: Silicon usually has 14 electrons.
<SFT>### Human: What is silicon's symbol? ### Assistant: Silicon's symbol is S.
<SFT>### Human: Where is silicon most abundant? ### Assistant: Silicon, like many metals, is common in rocks where it forms a component of minerals.
<SFT>### Human: What column is silicon in? ### Assistant: Silicon is in column 14.
<SFT>### Human: What row is silicon in? ### Assistant: Silicon is in row 3.
<SFT>### Human: What is silicon's melting point? ### Assistant: Silicon's melting point is 1,410 degrees Celsius.
<SFT>### Human: What is silicon's boiling point? ### Assistant: Silicon's boiling point is 3,265 degrees Celsius.
<SFT>### Human: What is silicon's radius? ### Assistant: Silicon's radius is 111 picometers.
<SFT>### Human: What is unique about silicon? ### Assistant: Silicon is used to make the transistors at the heart of all computers.
<SFT>### Human: What is argon's atomic number? ### Assistant: Argon's atomic number is 18.
<SFT>### Human: What group is argon in? ### Assistant: Argon is in group 18.
<SFT>### Human: What period is argon in? ### Assistant: Argon is in period 3.
<SFT>### Human: What is argon's atomic weight? ### Assistant: Argon's atomic weight is 39.95.
<SFT>### Human: What is argon's state at room temperature? ### Assistant: Argon's state is gas at room temperature.
<SFT>### Human: How many protons does argon have? ### Assistant: Argon has 18 protons.
<SFT>### Human: How many neutrons does argon usually have? ### Assistant: Argon usually has 18 neutrons.
<SFT>### Human: How many electrons does argon usually have? ### Assistant: Argon usually has 18 electrons.
<SFT>### Human: What is argon's symbol? ### Assistant: Argon's symbol is Ar.
<SFT>### Human: Where is argon most abundant? ### Assistant: Argon is the third most abundant gas in Earth's atmosphere.
<SFT>### Human: What column is argon in? ### Assistant: Argon is in column 18.
<SFT>### Human: What row is argon in? ### Assistant: Argon is in row 3.
<SFT>### Human: What is argon's melting point? ### Assistant: Argon's melting point is -189.2 degrees Celsius.
<SFT>### Human: What is argon's boiling point? ### Assistant: Argon's boiling point is -185.7 degrees Celsius.
<SFT>### Human: What is argon's radius? ### Assistant: Argon's radius is 71 picometers.
<SFT>### Human: What is unique about argon? ### Assistant: Argon is a noble gas, meaning that it is much less reactive than most other elements.
<SFT>### Human: What is calcium's atomic number? ### Assistant: Calcium's atomic number is 20.
<SFT>### Human: What group is calcium in? ### Assistant: Calcium is in group 2.
<SFT>### Human: What period is calcium in? ### Assistant: Calcium is in period 4.
<SFT>### Human: What is calcium's atomic weight? ### Assistant: Calcium's atomic weight is 40.01.
<SFT>### Human: What is calcium's state at room temperature? ### Assistant: Calcium's state is solid at room temperature.
<SFT>### Human: How many protons does calcium have? ### Assistant: Calcium has 20 protons.
<SFT>### Human: How many neutrons does calcium usually have? ### Assistant: Calcium usually has 20 neutrons.
<SFT>### Human: How many electrons does calcium usually have? ### Assistant: Calcium usually has 20 electrons.
<SFT>### Human: What is calcium's symbol? ### Assistant: Calcium's symbol is C.
<SFT>### Human: Where is calcium most abundant? ### Assistant: Calcium, like many metals, is common in rocks where it forms a component of minerals. It is the third most common metal in Earth's crust.
<SFT>### Human: What column is calcium in? ### Assistant: Calcium is in column 2.
<SFT>### Human: What row is calcium in? ### Assistant: Calcium is in row 4.
<SFT>### Human: What is calcium's melting point? ### Assistant: Calcium's melting point is 842 degrees Celsius.
<SFT>### Human: What is calcium's boiling point? ### Assistant: Calcium's boiling point is 1,484 degrees Celsius.
<SFT>### Human: What is calcium's radius? ### Assistant: Calcium's radius is 194 picometers.
<SFT>### Human: What is unique about calcium? ### Assistant: Calcium is common in the human body and it is very important for many body functions.
<SFT>### Human: What is iron's atomic number? ### Assistant: Iron's atomic number is 26.
<SFT>### Human: What group is iron in? ### Assistant: Iron is in group 8.
<SFT>### Human: What period is iron in? ### Assistant: Iron is in period 4.
<SFT>### Human: What is iron's atomic weight? ### Assistant: Iron's atomic weight is 55.85.
<SFT>### Human: What is iron's state at room temperature? ### Assistant: Iron's state is solid at room temperature.
<SFT>### Human: How many protons does iron have? ### Assistant: Iron has 26 protons.
<SFT>### Human: How many neutrons does iron usually have? ### Assistant: Iron usually has 26 neutrons.
<SFT>### Human: How many electrons does iron usually have? ### Assistant: Iron usually has 26 electrons.
<SFT>### Human: What is iron's symbol? ### Assistant: Iron's symbol is Fe.
<SFT>### Human: Where is iron most abundant? ### Assistant: Iron, like many metals, is common in rocks where it forms a component of minerals. In Earth, it makes up most of the core.
<SFT>### Human: What column is iron in? ### Assistant: Iron is in column 8.
<SFT>### Human: What row is iron in? ### Assistant: Iron is in row 4.
<SFT>### Human: What is iron's melting point? ### Assistant: Iron's melting point is 1,538 degrees Celsius.
<SFT>### Human: What is iron's boiling point? ### Assistant: Iron's boiling point is 2,861 degrees Celsius.
<SFT>### Human: What is iron's radius? ### Assistant: Iron's radius is 156 picometers.
<SFT>### Human: What is unique about iron? ### Assistant: Iron is the last element that stars fuse in their cores before going supernova.
<SFT>### Human: What is silver's atomic number? ### Assistant: Silver's atomic number is 47.
<SFT>### Human: What group is silver in? ### Assistant: Silver is in group 11.
<SFT>### Human: What period is silver in? ### Assistant: Silver is in period 5.
<SFT>### Human: What is silver's atomic weight? ### Assistant: Silver's atomic weight is 107.87.
<SFT>### Human: What is silver's state at room temperature? ### Assistant: Silver's state is solid at room temperature.
<SFT>### Human: How many protons does silver have? ### Assistant: Silver has 47 protons.
<SFT>### Human: How many neutrons does silver usually have? ### Assistant: Silver usually has 47 neutrons.
<SFT>### Human: How many electrons does silver usually have? ### Assistant: Silver usually has 47 electrons.
<SFT>### Human: What is silver's symbol? ### Assistant: Silver's symbol is Ag.
<SFT>### Human: Where is silver most abundant? ### Assistant: Silver, like many metals, is common in rocks where it forms a component of minerals. On Earth, it is considered a precious metal.
<SFT>### Human: What column is silver in? ### Assistant: Silver is in column 11.
<SFT>### Human: What row is silver in? ### Assistant: Silver is in row 5.
<SFT>### Human: What is silver's melting point? ### Assistant: Silver's melting point is 961.78 degrees Celsius.
<SFT>### Human: What is silver's boiling point? ### Assistant: Silver's boiling point is 2,162 degrees Celsius.
<SFT>### Human: What is silver's radius? ### Assistant: Silver's radius is 165 picometers.
<SFT>### Human: What is unique about silver? ### Assistant: Silver has the highest electrical and thermal conductivity as well as reflectivity of any element.
<SFT>### Human: What is cesium's atomic number? ### Assistant: Cesium's atomic number is 55.
